 Gaussian 16, Revision C.01,
 Gaussian 16:  ES64L-G16RevC.01  3-Jul-2019

 -----------------------------
 # opt pbe1pbe/genecp em=gd3bj
 -----------------------------

 ----------------
 0-2-Ligand-M.xyz
 ----------------
 Symbolic Z-matrix:
 Charge =  0 Multiplicity = 1

 SCF Done:  E(RPBE1PBE) =  -2162.95657022     A.U. after   16 cycles
 SCF Done:  E(RPBE1PBE) =  -2162.96227119     A.U. after   14 cycles
 SCF Done:  E(RPBE1PBE) =  -2162.96495535     A.U. after   14 cycles
 SCF Done:  E(RPBE1PBE) =  -2162.96575482     A.U. after   13 cycles
 SCF Done:  E(RPBE1PBE) =  -2162.96770143     A.U. after   13 cycles
 SCF Done:  E(RPBE1PBE) =  -2162.96960713     A.U. after   12 cycles
 SCF Done:  E(RPBE1PBE) =  -2162.96957784     A.U. after   13 cycles
 SCF Done:  E(RPBE1PBE) =  -2162.96907038     A.U. after   13 cycles
 SCF Done:  E(RPBE1PBE) =  -2162.96850305     A.U. after   12 cycles
 SCF Done:  E(RPBE1PBE) =  -2162.97013053     A.U. after    9 cycles
 SCF Done:  E(RPBE1PBE) =  -2162.97130702     A.U. after   10 cycles
 SCF Done:  E(RPBE1PBE) =  -2162.97131507     A.U. after   10 cycles
 SCF Done:  E(RPBE1PBE) =  -2162.97132162     A.U. after    9 cycles
 SCF Done:  E(RPBE1PBE) =  -2162.97132608     A.U. after    9 cycles
 SCF Done:  E(RPBE1PBE) =  -2162.97132895     A.U. after    9 cycles
 SCF Done:  E(RPBE1PBE) =  -2162.97133235     A.U. after    9 cycles
 SCF Done:  E(RPBE1PBE) =  -2162.97133557     A.U. after    9 cycles
 SCF Done:  E(RPBE1PBE) =  -2162.97133744     A.U. after    9 cycles
 SCF Done:  E(RPBE1PBE) =  -2162.97133809     A.U. after    8 cycles
 SCF Done:  E(RPBE1PBE) =  -2162.97133833     A.U. after    7 cycles
 Optimization completed.
    -- Stationary point found.

                         Standard orientation:
 ---------------------------------------------------------------------
 Center     Atomic      Atomic             Coordinates (Angstroms)
 Number     Number       Type             X           Y           Z
 ---------------------------------------------------------------------
      1          8           0        1.758119    0.844834   -3.986189
      2          6           0        1.134996    0.647489   -3.043831
      3         45           0        0.023284    0.335768   -1.558673
      4         15           0       -1.798890    0.047225   -0.236774
      5          7           0       -2.892223   -1.132473   -0.816256
      6          6           0       -4.100348   -1.523971   -0.255798
      7          6           0       -4.584964   -2.571983   -0.986109
      8          6           0       -3.648596   -2.844806   -2.029449
      9          6           0       -2.622912   -1.951081   -1.908159
     10          7           0       -2.692436    1.491727   -0.022773
     11          6           0       -3.686518    1.759446    0.911002
     12          6           0       -4.150071    3.024515    0.683066
     13          6           0       -3.429852    3.559036   -0.427101
     14          6           0       -2.546666    2.604353   -0.845440
     15          7           0       -1.752242   -0.446748    1.417092
     16          6           0       -1.694676   -1.773377    1.828391
     17          6           0       -1.262442   -1.799492    3.124996
     18          6           0       -1.016792   -0.453777    3.525706
     19          6           0       -1.305417    0.355435    2.462017
     20         15           0        1.629595    0.046495    0.006011
     21          7           0        1.793009    1.321434    1.137227
     22          6           0        2.785959    1.511107    2.089617
     23          6           0        2.527761    2.684213    2.742170
     24          6           0        1.348849    3.250029    2.169536
     25          6           0        0.921364    2.402501    1.186374
     26          7           0        1.463346   -1.394492    0.927321
     27          6           0        0.999943   -2.548452    0.300755
     28          6           0        1.284832   -3.615787    1.106872
     29          6           0        1.938013   -3.110221    2.269529
     30          6           0        2.045714   -1.753455    2.131328
     31          7           0        3.300377   -0.092010   -0.420106
     32          6           0        4.036693    0.953934   -0.952053
     33          6           0        5.185053    0.434219   -1.487442
     34          6           0        5.145875   -0.977971   -1.298568
     35          6           0        3.974905   -1.279312   -0.655430
     36          1           0       -1.135812    0.534795   -2.654166
     37          1           0       -4.495570   -1.021942    0.612905
     38          1           0       -5.517374   -3.087485   -0.801612
     39          1           0       -3.732162   -3.606894   -2.791420
     40          1           0       -1.729592   -1.783868   -2.493153
     41          1           0       -3.933957    1.038606    1.674406
     42          1           0       -4.921175    3.521970    1.255026
     43          1           0       -3.551190    4.539017   -0.866842
     44          1           0       -1.830411    2.580967   -1.654534
     45          1           0       -1.979039   -2.569462    1.158203
     46          1           0       -1.137310   -2.689315    3.724951
     47          1           0       -0.680072   -0.114963    4.495553
     48          1           0       -1.255127    1.427414    2.356376
     49          1           0        3.608685    0.817198    2.169792
     50          1           0        3.129084    3.107178    3.535075
     51          1           0        0.880135    4.185350    2.441538
     52          1           0        0.094119    2.464818    0.492665
     53          1           0        0.520854   -2.478687   -0.666813
     54          1           0        1.031066   -4.646240    0.901001
     55          1           0        2.269877   -3.681954    3.125293
     56          1           0        2.438477   -1.002595    2.797643
     57          1           0        3.681955    1.971481   -0.873249
     58          1           0        5.978611    1.005259   -1.948938
     59          1           0        5.905458   -1.691224   -1.586635
     60          1           0        3.564156   -2.221092   -0.321247
 ---------------------------------------------------------------------

 The electronic state is 1-A.
 Alpha  occ. eigenvalues --  -77.34437 -77.33714 -19.30533 -14.45938 -14.45921
 Alpha  occ. eigenvalues --  -14.45659 -14.45520 -14.45270 -14.44825 -10.35678
 Alpha  occ. eigenvalues --  -10.26411 -10.26405 -10.26282 -10.26255 -10.26116
 Alpha  occ. eigenvalues --  -10.26101 -10.26069 -10.25969 -10.25596 -10.25507
 Alpha  occ. eigenvalues --  -10.25416 -10.25396 -10.23121 -10.22939 -10.22927
 Alpha  occ. eigenvalues --  -10.22793 -10.22789 -10.22738 -10.22716 -10.22552
 Alpha  occ. eigenvalues --  -10.22246 -10.22090 -10.22069 -10.21918  -6.72437
 Alpha  occ. eigenvalues --   -6.71802  -4.86158  -4.86140  -4.85690  -4.85520
 Alpha  occ. eigenvalues --   -4.85493  -4.85026  -3.26260  -2.02548  -2.01562
 Alpha  occ. eigenvalues --   -1.97743  -1.16402  -1.03887  -1.03698  -1.01019
 Alpha  occ. eigenvalues --   -1.00942  -1.00265  -1.00096  -0.84750  -0.84533
 Alpha  occ. eigenvalues --   -0.80244  -0.80209  -0.79444  -0.79260  -0.76025
 Alpha  occ. eigenvalues --   -0.75743  -0.75522  -0.75327  -0.74714  -0.74583
 Alpha  occ. eigenvalues --   -0.68964  -0.68669  -0.60737  -0.60705  -0.60604
 Alpha  occ. eigenvalues --   -0.60443  -0.59660  -0.59511  -0.58787  -0.58580
 Alpha  occ. eigenvalues --   -0.58379  -0.58242  -0.58029  -0.57747  -0.57293
 Alpha  occ. eigenvalues --   -0.56323  -0.56229  -0.56030  -0.55923  -0.50658
 Alpha  occ. eigenvalues --   -0.49464  -0.47693  -0.47166  -0.46810  -0.46218
 Alpha  occ. eigenvalues --   -0.45822  -0.45428  -0.45258  -0.45034  -0.44944
 Alpha  occ. eigenvalues --   -0.44747  -0.44150  -0.43922  -0.43797  -0.43649
 Alpha  occ. eigenvalues --   -0.43431  -0.42795  -0.42378  -0.41967  -0.41759
 Alpha  occ. eigenvalues --   -0.41100  -0.40942  -0.40641  -0.40422  -0.40286
 Alpha  occ. eigenvalues --   -0.40186  -0.40077  -0.39767  -0.39493  -0.39467
 Alpha  occ. eigenvalues --   -0.39373  -0.38976  -0.38730  -0.36399  -0.30872
 Alpha  occ. eigenvalues --   -0.30751  -0.28126  -0.27930  -0.27498  -0.27041
 Alpha  occ. eigenvalues --   -0.26459  -0.26096  -0.26020  -0.25425  -0.24360
 Alpha  occ. eigenvalues --   -0.23736  -0.23689  -0.23421  -0.22629  -0.22207
 Alpha  occ. eigenvalues --   -0.21974
 Alpha virt. eigenvalues --   -0.06066  -0.01469  -0.00342   0.00251   0.00983
 Alpha virt. eigenvalues --    0.01582   0.01750   0.01813   0.02488   0.03574
 Alpha virt. eigenvalues --    0.03783   0.04795   0.05237   0.05607   0.06173

 Mulliken charges:
               1
     1  O   -0.277272
     2  C    0.359112
     3  Rh  -0.823343
     4  P    1.124534
     5  N   -0.598856
     6  C    0.065526
     7  C   -0.189791
     8  C   -0.198148
     9  C    0.072117
    10  N   -0.602112
    11  C    0.050247
    12  C   -0.188045
    13  C   -0.195593
    14  C    0.060020
    15  N   -0.621670
    16  C    0.050272
    17  C   -0.172378
    18  C   -0.177731
    19  C    0.032732
    20  P    1.109442
    21  N   -0.607471
    22  C    0.048040
    23  C   -0.188221
    24  C   -0.197284
    25  C    0.058915
    26  N   -0.577438
    27  C    0.023756
    28  C   -0.181638
    29  C   -0.185365
    30  C    0.066110
    31  N   -0.600804
    32  C    0.035178
    33  C   -0.176855
    34  C   -0.190834
    35  C    0.047285
    36  H    0.025792
    37  H    0.151948
    38  H    0.133108
    39  H    0.134445
    40  H    0.205632
    41  H    0.165214
    42  H    0.133508
    43  H    0.135584
    44  H    0.211887
    45  H    0.173240
    46  H    0.127534
    47  H    0.129138
    48  H    0.165481
    49  H    0.168287
    50  H    0.133989
    51  H    0.136700
    52  H    0.202233
    53  H    0.197195
    54  H    0.133011
    55  H    0.130292
    56  H    0.150686
    57  H    0.172397
    58  H    0.129952
    59  H    0.129013
    60  H    0.171298
 Sum of Mulliken charges =  -0.00000

 Dipole moment (field-independent basis, Debye):
    X=             -0.2658    Y=             -0.5325    Z=              3.2155  Tot=              3.2701
 Quadrupole moment (field-independent basis, Debye-Ang):
   XX=           -224.9043   YY=           -216.0880   ZZ=           -232.5881
   XY=              0.2444   XZ=              1.6234   YZ=              3.2630

 Normal termination of Gaussian 16 at Tue Mar 26 16:15:43 2024.
