   * xtb version 6.6.0 (8843059) compiled by 'stahn@majestix' on 2023-02-09
          program call               : xtb 0-0-olefin.xyz --input md_param.inp --omd --gfn 0 --namespace ./0-0-olefin

   ID    Z sym.   atoms
    1    6 C      1-6
    2    1 H      7-18

 * total energy  :   -19.3319740 Eh     change        0.0000000E+00 Eh
 * total energy  :   -19.3394411 Eh     change       -0.7467082E-02 Eh
 * total energy  :   -19.3411583 Eh     change       -0.1717251E-02 Eh
 * total energy  :   -19.3414429 Eh     change       -0.2845187E-03 Eh
 * total energy  :   -19.3417200 Eh     change       -0.2771480E-03 Eh
 * total energy  :   -19.3419758 Eh     change       -0.2558380E-03 Eh
 * total energy  :   -19.3424064 Eh     change       -0.4305836E-03 Eh
 * total energy  :   -19.3429435 Eh     change       -0.5371102E-03 Eh
 * total energy  :   -19.3433398 Eh     change       -0.3962387E-03 Eh
 * total energy  :   -19.3436756 Eh     change       -0.3358057E-03 Eh
 * total energy  :   -19.3440989 Eh     change       -0.4233294E-03 Eh
 * total energy  :   -19.3442254 Eh     change       -0.1265143E-03 Eh
 * total energy  :   -19.3443593 Eh     change       -0.1339051E-03 Eh
 * total energy  :   -19.3444413 Eh     change       -0.8197418E-04 Eh
 * total energy  :   -19.3445158 Eh     change       -0.7447746E-04 Eh
 * total energy  :   -19.3445603 Eh     change       -0.4454489E-04 Eh
   *** GEOMETRY OPTIMIZATION CONVERGED AFTER 16 ITERATIONS ***

 final structure:
================
18
 xtb: 6.6.0 (8843059)
C           -2.62907863180577        0.79926955348825        1.02606449420877
C           -1.35113068933096        0.79595808319038        0.71386547088897
C           -0.83284283608036        0.37573474516020       -0.62537853104331
C           -0.02523070874961       -0.92292868825668       -0.53921581797546
C            1.28947720649109       -0.76293027556221        0.21716243972299
C            2.32012289031719        0.00625837799864       -0.59422752057286
H           -3.38112113067787        0.51413963779761        0.29995453661439
H           -2.99277558356662        1.08999230879817        2.00365834086917
H           -0.59929711343777        1.08365736761902        1.44207007176033
H           -1.67860221431255        0.21693349268766       -1.29738784146411
H           -0.19829344657769        1.16220723743804       -1.04065730690009
H            0.19673688448357       -1.26656435209121       -1.55110760539498
H           -0.63959688431403       -1.67698446105098       -0.04463042318199
H            1.11122245527922       -0.24396147143194        1.15889393406836
H            1.68883880756458       -1.75226208635599        0.44082033977671
H            1.94190831469316        0.99667700031074       -0.84596011237249
H            3.24150655322546        0.11473055598270       -0.02380741119604
H            2.53815612679902       -0.52992602572250       -1.51808605780817

         :: total energy             -19.344560331566 Eh    ::
         :: gradient norm              0.001743204717 Eh/a0 ::
         :: HOMO-LUMO gap              5.103878888069 eV    ::
         :: repulsion energy           0.336096896765 Eh    ::
         :: -> Gsolv                   0.000000000000 Eh    ::

    * Orbital Energies and Occupations

         #    Occupation            Energy/Eh            Energy/eV
      -------------------------------------------------------------
         1        2.0000           -0.6421273             -17.4732
       ...           ...                  ...                  ...
         6        2.0000           -0.5886187             -16.0171
         7        2.0000           -0.5664882             -15.4149
         8        2.0000           -0.5579695             -15.1831
         9        2.0000           -0.5457661             -14.8511
        10        2.0000           -0.5335889             -14.5197
        11        2.0000           -0.5212922             -14.1851
        12        2.0000           -0.5201357             -14.1536
        13        2.0000           -0.5045760             -13.7302
        14        2.0000           -0.4968862             -13.5210
        15        2.0000           -0.4844978             -13.1839
        16        2.0000           -0.4774819             -12.9929
        17        2.0000           -0.4735654             -12.8864
        18        2.0000           -0.4401803             -11.9779 (HOMO)
        19                         -0.2526162              -6.8740 (LUMO)
        20                         -0.1636350              -4.4527
        21                         -0.1520168              -4.1366
        22                         -0.1381954              -3.7605
        23                         -0.1353783              -3.6838
        24                         -0.1181538              -3.2151
        25                         -0.1045205              -2.8441
        26                         -0.1016674              -2.7665
        27                         -0.0989132              -2.6916
        28                         -0.0847053              -2.3049
        29                         -0.0720437              -1.9604
       ...                                ...                  ...
        48                          0.5518200              15.0158
      -------------------------------------------------------------
                  HL-Gap            0.1875641 Eh            5.1039 eV

     #   Z          covCN         q      C6AA      α(0)
     1   6 C        2.837    -0.352    40.143    10.350
     2   6 C        2.886    -0.082    31.666     9.197
     3   6 C        3.807    -0.102    25.113     7.221
     4   6 C        3.805    -0.159    26.376     7.401
     5   6 C        3.801    -0.095    24.967     7.201
     6   6 C        3.752    -0.367    31.780     8.135
     7   1 H        0.925     0.141     1.453     1.885
     8   1 H        0.925     0.138     1.476     1.900
     9   1 H        0.925     0.091     1.867     2.136
    10   1 H        0.924     0.071     2.070     2.250
    11   1 H        0.924     0.070     2.090     2.261
    12   1 H        0.924     0.076     2.019     2.222
    13   1 H        0.924     0.083     1.946     2.181
    14   1 H        0.925     0.076     2.018     2.221
    15   1 H        0.925     0.067     2.116     2.275
    16   1 H        0.925     0.117     1.636     2.000
    17   1 H        0.925     0.110     1.695     2.036
    18   1 H        0.925     0.115     1.658     2.014

Wiberg/Mayer (AO) data.
largest (>0.10) Wiberg bond orders for each atom

     #   Z sym  total        # sym  WBO       # sym  WBO       # sym  WBO
 ---------------------------------------------------------------------------
     1   6 C    3.990 --     2 C    1.986     8 H    0.978     7 H    0.975
     2   6 C    3.984 --     1 C    1.986     3 C    1.026     9 H    0.969
     3   6 C    3.990 --     2 C    1.026     4 C    0.993    10 H    0.975
                            11 H    0.963
     4   6 C    3.989 --     5 C    1.013     3 C    0.993    13 H    0.978
                            12 H    0.977
     5   6 C    3.990 --     6 C    1.026     4 C    1.013    15 H    0.979
                            14 H    0.974
     6   6 C    3.981 --     5 C    1.026    17 H    0.984    18 H    0.982
                            16 H    0.978
     7   1 H    0.985 --     1 C    0.975
     8   1 H    0.988 --     1 C    0.978
     9   1 H    0.983 --     2 C    0.969
    10   1 H    0.977 --     3 C    0.975
    11   1 H    0.981 --     3 C    0.963
    12   1 H    0.978 --     4 C    0.977
    13   1 H    0.982 --     4 C    0.978
    14   1 H    0.978 --     5 C    0.974
    15   1 H    0.983 --     5 C    0.979
    16   1 H    0.979 --     6 C    0.978
    17   1 H    0.982 --     6 C    0.984
    18   1 H    0.980 --     6 C    0.982
 ---------------------------------------------------------------------------

           -------------------------------------------------
          | TOTAL ENERGY              -19.344560331566 Eh   |
          | GRADIENT NORM               0.001743204717 Eh/α |
          | HOMO-LUMO GAP               5.103878888069 eV   |
           -------------------------------------------------

 * finished run on 2024/03/26 at 13:22:14.476
