   * xtb version 6.6.0 (8843059) compiled by 'stahn@majestix' on 2023-02-09
          program call               : xtb 0-2-Ligand-M.xyz --input md_param.inp --omd --gfn 0 --namespace ./0-2-Ligand-M

   ID    Z sym.   atoms
    1    8 O      1
    2    6 C      2, 6-9, 11-14, 16-19, 22-25, 27-30, 32-35
    3   45 Rh     3
    4   15 P      4, 20
    5    7 N      5, 10, 15, 21, 26, 31
    6    1 H      36-60

 * total energy  :   -96.0880202 Eh     change        0.0000000E+00 Eh
 * total energy  :   -96.1939543 Eh     change       -0.1059341E+00 Eh
 * total energy  :   -96.2531200 Eh     change       -0.5916577E-01 Eh
 * total energy  :   -96.2797153 Eh     change       -0.2659527E-01 Eh
 * total energy  :   -96.2978147 Eh     change       -0.1809941E-01 Eh
 * total energy  :   -96.3064120 Eh     change       -0.8597238E-02 Eh
 * total energy  :   -96.3229593 Eh     change       -0.1654737E-01 Eh
 * total energy  :   -96.3323972 Eh     change       -0.9437868E-02 Eh
 * total energy  :   -96.3404636 Eh     change       -0.8066458E-02 Eh
 * total energy  :   -96.3454114 Eh     change       -0.4947780E-02 Eh
 * total energy  :   -96.3876503 Eh     change       -0.9185148E-04 Eh
 * total energy  :   -96.3877333 Eh     change       -0.8293093E-04 Eh
 * total energy  :   -96.3877963 Eh     change       -0.6301758E-04 Eh
 * total energy  :   -96.3878640 Eh     change       -0.6767508E-04 Eh
 * total energy  :   -96.3879203 Eh     change       -0.5628650E-04 Eh
 * total energy  :   -96.3880025 Eh     change       -0.8223366E-04 Eh
 * total energy  :   -96.3880899 Eh     change       -0.8739750E-04 Eh
 * total energy  :   -96.3881724 Eh     change       -0.8255800E-04 Eh
 * total energy  :   -96.3882176 Eh     change       -0.4514732E-04 Eh
   *** GEOMETRY OPTIMIZATION CONVERGED AFTER 64 ITERATIONS ***

 final structure:
================
60
 xtb: 6.6.0 (8843059)
O           -2.16431859938113        1.02288395594021        4.15144713914071
C           -1.35974870879665        0.74318271897776        3.43548894971695
Rh          -0.02384314936709        0.31882205966789        2.14623572289984
P            1.59447735495578       -0.00128359024408        0.65440852952167
N            1.45083806089415       -0.53363188563338       -0.97039930484809
C            0.99053996631869        0.22403612846291       -2.02070491910871
C            0.83937124104317       -0.57040605057259       -3.11706904532808
C            1.20514188416305       -1.89284943045907       -2.72291454707631
C            1.56211784865908       -1.83193716492981       -1.40960814444598
N            2.87880382240520       -1.05569704216751        1.05889051049492
C            4.08990945712582       -1.23264289218397        0.42931273408344
C            4.78050816942666       -2.22505146425790        1.05582469993008
C            3.95660778870154       -2.69617944000337        2.12630100906540
C            2.81234532080532       -1.96224128140551        2.09532291491713
N            2.42076071748863        1.45737933625036        0.32144166801568
C            3.31238862631501        1.80214769948053       -0.66778731042959
C            3.65549900502862        3.11179780033550       -0.52287707617625
C            2.94018196339995        3.61207718250280        0.60962499673133
C            2.20264343858929        2.57915806642908        1.09360742476593
P           -1.55247981370806        0.15413332582362        0.56102697817576
N           -3.23083558049936        0.12053700341133        0.95456907438867
C           -4.13765239644377       -0.91008609679195        0.92703152396561
C           -5.30941257131816       -0.48876410761079        1.48330951147420
C           -5.11516725181563        0.86536263248835        1.89149893452235
C           -3.83421506545723        1.19494724552194        1.56478570414089
N           -1.68598123270238        1.34440515657269       -0.64719616138954
C           -2.62605095489981        1.51775025750521       -1.63691944433169
C           -2.38726185546044        2.69451573049811       -2.27763233139627
C           -1.25265384214088        3.29523664205838       -1.64482961543399
C           -0.86227333040151        2.44941309918418       -0.65457088087032
N           -1.48955027669196       -1.31769522157760       -0.29944810516944
C           -2.00543347987011       -1.75169095444278       -1.49718693110697
C           -1.75415915619179       -3.08341716399463       -1.63387366168171
C           -1.05053437503713       -3.50375836402882       -0.46144381362435
C           -0.90792601103089       -2.40267991596165        0.32184773396838
H            1.02771612435255        0.34697973436592        3.30746924800002
H            0.83651478209866        1.27959324900372       -1.90163797145815
H            0.50859110103531       -0.27308478046010       -4.09732833123870
H            1.19802808189097       -2.76491393395021       -3.35461718285395
H            1.89104461081852       -2.60949372687263       -0.74565196379548
H            4.35930733009886       -0.63706153210167       -0.42345725778628
H            5.76018829716773       -2.59537969662959        0.80488200770532
H            4.21090136389476       -3.48470943370175        2.81562195982602
H            1.92841305551819       -1.99876678414740        2.71055490714533
H            3.62013885483653        1.08578149655494       -1.40621767593756
H            4.33388124941606        3.67733070745902       -1.13858172949251
H            2.98810169998061        4.61761192130546        0.99228641119518
H            1.50653568741071        2.51855602786801        1.91983471602384
H           -3.87782921672436       -1.86050598056362        0.49890910477564
H           -6.21565480772048       -1.05900438578487        1.60253549703204
H           -5.84971755940783        1.49039001927881        2.37044744226053
H           -3.29020022728587        2.11341127909374        1.69322161857288
H           -3.39314991599698        0.78414672243832       -1.80202300884663
H           -2.93868620968649        3.11219951194503       -3.10301455502780
H           -0.81006888945295        4.24017973542593       -1.91110105393390
H           -0.07076163732386        2.52101560256335        0.07230097002289
H           -2.50729956561247       -1.07333940120491       -2.16080416726189
H           -2.02031578305874       -3.71288277821836       -2.46648533461200
H           -0.70282163282653       -4.50277025250843       -0.26018249104978
H           -0.43549480744600       -2.26305629619501        1.28552137336791

         :: total energy             -96.388217591043 Eh    ::
         :: gradient norm              0.003936307478 Eh/a0 ::
         :: HOMO-LUMO gap              3.017018013147 eV    ::
         :: repulsion energy           1.529552789588 Eh    ::
         :: -> Gsolv                   0.000000000000 Eh    ::

    * Orbital Energies and Occupations

         #    Occupation            Energy/Eh            Energy/eV
      -------------------------------------------------------------
         1        2.0000           -0.7221924             -19.6519
       ...           ...                  ...                  ...
        78        2.0000           -0.4291052             -11.6765
        79        2.0000           -0.4260521             -11.5935
        80        2.0000           -0.4257116             -11.5842
        81        2.0000           -0.4188524             -11.3976
        82        2.0000           -0.4177956             -11.3688
        83        2.0000           -0.4159947             -11.3198
        84        2.0000           -0.4157646             -11.3135
        85        2.0000           -0.4152132             -11.2985
        86        2.0000           -0.4148383             -11.2883
        87        2.0000           -0.4145355             -11.2801
        88        2.0000           -0.4140388             -11.2666
        89        2.0000           -0.4114093             -11.1950
        90        2.0000           -0.3834286             -10.4336 (HOMO)
        91                         -0.2725552              -7.4166 (LUMO)
        92                         -0.2613387              -7.1114
        93                         -0.2595465              -7.0626
        94                         -0.2527285              -6.8771
        95                         -0.2491041              -6.7785
        96                         -0.2457158              -6.6863
        97                         -0.2435096              -6.6262
        98                         -0.2237924              -6.0897
        99                         -0.2052714              -5.5857
       100                         -0.2046592              -5.5691
       101                         -0.2034732              -5.5368
       ...                                ...                  ...
       205                          2.5882317              70.4294
      -------------------------------------------------------------
                  HL-Gap            0.1108734 Eh            3.0170 eV

     #   Z          covCN         q      C6AA      α(0)
     1   8 O        0.857    -0.412    21.842     6.271
     2   6 C        1.812    -0.006    31.883     9.113
     3  45 Rh       3.815     0.469   263.008    31.818
     4  15 P        4.375     0.450   145.024    21.579
     5   7 N        2.789    -0.570    33.229     8.631
     6   6 C        3.137     0.237    24.114     8.014
     7   6 C        3.038    -0.144    33.334     9.441
     8   6 C        3.040    -0.140    33.204     9.422
     9   6 C        3.130     0.227    24.314     8.050
    10   7 N        2.787    -0.593    33.938     8.723
    11   6 C        3.103     0.247    23.988     8.002
    12   6 C        3.039    -0.158    33.728     9.496
    13   6 C        3.034    -0.128    32.880     9.376
    14   6 C        3.158     0.186    25.050     8.160
    15   7 N        2.788    -0.603    34.262     8.764
    16   6 C        3.087     0.229    24.366     8.067
    17   6 C        3.043    -0.151    33.514     9.466
    18   6 C        3.033    -0.131    32.960     9.388
    19   6 C        3.194     0.192    24.782     8.096
    20  15 P        4.462     0.461   144.626    21.549
    21   7 N        2.790    -0.574    33.358     8.648
    22   6 C        3.091     0.215    24.637     8.111
    23   6 C        3.042    -0.140    33.215     9.424
    24   6 C        3.036    -0.130    32.920     9.382
    25   6 C        3.180     0.252    23.688     7.924
    26   7 N        2.789    -0.597    34.069     8.739
    27   6 C        3.096     0.240    24.139     8.028
    28   6 C        3.041    -0.156    33.669     9.488
    29   6 C        3.034    -0.134    33.040     9.399
    30   6 C        3.190     0.185    24.951     8.127
    31   7 N        2.789    -0.592    33.933     8.722
    32   6 C        3.076     0.240    24.174     8.037
    33   6 C        3.045    -0.150    33.496     9.463
    34   6 C        3.031    -0.147    33.422     9.454
    35   6 C        3.238     0.214    24.065     7.939
    36   1 H        0.948    -0.073     4.709     3.392
    37   1 H        0.926     0.064     2.152     2.294
    38   1 H        0.926     0.094     1.844     2.123
    39   1 H        0.926     0.092     1.856     2.130
    40   1 H        0.926     0.059     2.211     2.325
    41   1 H        0.926     0.052     2.293     2.368
    42   1 H        0.926     0.097     1.815     2.107
    43   1 H        0.926     0.094     1.840     2.121
    44   1 H        0.926     0.025     2.661     2.551
    45   1 H        0.926     0.053     2.279     2.361
    46   1 H        0.926     0.094     1.838     2.120
    47   1 H        0.926     0.095     1.831     2.116
    48   1 H        0.925     0.013     2.835     2.633
    49   1 H        0.926     0.068     2.104     2.268
    50   1 H        0.926     0.098     1.800     2.098
    51   1 H        0.926     0.105     1.739     2.062
    52   1 H        0.926     0.066     2.130     2.282
    53   1 H        0.926     0.054     2.276     2.359
    54   1 H        0.926     0.095     1.831     2.116
    55   1 H        0.926     0.094     1.836     2.119
    56   1 H        0.926     0.036     2.509     2.477
    57   1 H        0.926     0.045     2.389     2.417
    58   1 H        0.926     0.092     1.859     2.132
    59   1 H        0.926     0.093     1.846     2.125
    60   1 H        0.925     0.005     2.966     2.693

Wiberg/Mayer (AO) data.
largest (>0.10) Wiberg bond orders for each atom

     #   Z sym  total        # sym  WBO       # sym  WBO       # sym  WBO
 ---------------------------------------------------------------------------
     1   8 O    2.775 --     2 C    2.536     3 Rh   0.181
     2   6 C    3.653 --     1 O    2.536     3 Rh   1.015
     3  45 Rh   4.391 --    20 P    1.028     2 C    1.015     4 P    0.966
                            36 H    0.792     1 O    0.181
     4  15 P    4.162 --     3 Rh   0.966    15 N    0.947    10 N    0.941
                             5 N    0.924
     5   7 N    3.509 --     6 C    1.185     9 C    1.185     4 P    0.924
     6   6 C    3.941 --     7 C    1.599     5 N    1.185    37 H    0.966
                             9 C    0.104
     7   6 C    3.968 --     6 C    1.599     8 C    1.275    38 H    0.973
     8   6 C    3.968 --     9 C    1.599     7 C    1.275    39 H    0.973
     9   6 C    3.941 --     8 C    1.599     5 N    1.185    40 H    0.971
                             6 C    0.104
    10   7 N    3.517 --    14 C    1.177    11 C    1.176     4 P    0.941
    11   6 C    3.941 --    12 C    1.610    10 N    1.176    41 H    0.967
                            14 C    0.106
    12   6 C    3.969 --    11 C    1.610    13 C    1.266    42 H    0.973
    13   6 C    3.970 --    14 C    1.612    12 C    1.266    43 H    0.973
    14   6 C    3.941 --    13 C    1.612    10 N    1.177    44 H    0.955
                            11 C    0.106
    15   7 N    3.519 --    16 C    1.178    19 C    1.172     4 P    0.947
    16   6 C    3.941 --    17 C    1.607    15 N    1.178    45 H    0.969
                            19 C    0.105
    17   6 C    3.967 --    16 C    1.607    18 C    1.266    46 H    0.973
    18   6 C    3.971 --    19 C    1.610    17 C    1.266    47 H    0.973
    19   6 C    3.939 --    18 C    1.610    15 N    1.172    48 H    0.928
                            16 C    0.105
    20  15 P    4.203 --     3 Rh   1.028    26 N    0.956    31 N    0.943
                            21 N    0.901
    21   7 N    3.509 --    22 C    1.190    25 C    1.189    20 P    0.901
    22   6 C    3.941 --    23 C    1.595    21 N    1.190    49 H    0.970
                            25 C    0.104
    23   6 C    3.967 --    22 C    1.595    24 C    1.278    50 H    0.973
    24   6 C    3.971 --    25 C    1.598    23 C    1.278    51 H    0.973
    25   6 C    3.941 --    24 C    1.598    21 N    1.189    52 H    0.968
                            22 C    0.104
    26   7 N    3.525 --    27 C    1.174    30 C    1.172    20 P    0.956
    27   6 C    3.941 --    28 C    1.611    26 N    1.174    53 H    0.968
                            30 C    0.104
    28   6 C    3.969 --    27 C    1.611    29 C    1.265    54 H    0.973
    29   6 C    3.971 --    30 C    1.608    28 C    1.265    55 H    0.974
    30   6 C    3.944 --    29 C    1.608    26 N    1.172    56 H    0.949
                            27 C    0.104
    31   7 N    3.522 --    32 C    1.179    35 C    1.174    20 P    0.943
    32   6 C    3.941 --    33 C    1.606    31 N    1.179    57 H    0.967
                            35 C    0.105
    33   6 C    3.967 --    32 C    1.606    34 C    1.267    58 H    0.973
    34   6 C    3.971 --    35 C    1.609    33 C    1.267    59 H    0.974
    35   6 C    3.939 --    34 C    1.609    31 N    1.174    60 H    0.931
                            32 C    0.105
    36   1 H    0.890 --     3 Rh   0.792
    37   1 H    0.984 --     6 C    0.966
    38   1 H    0.985 --     7 C    0.973
    39   1 H    0.985 --     8 C    0.973
    40   1 H    0.983 --     9 C    0.971
    41   1 H    0.980 --    11 C    0.967
    42   1 H    0.985 --    12 C    0.973
    43   1 H    0.985 --    13 C    0.973
    44   1 H    0.979 --    14 C    0.955
    45   1 H    0.982 --    16 C    0.969
    46   1 H    0.984 --    17 C    0.973
    47   1 H    0.985 --    18 C    0.973
    48   1 H    0.986 --    19 C    0.928
    49   1 H    0.982 --    22 C    0.970
    50   1 H    0.985 --    23 C    0.973
    51   1 H    0.985 --    24 C    0.973
    52   1 H    0.980 --    25 C    0.968
    53   1 H    0.981 --    27 C    0.968
    54   1 H    0.985 --    28 C    0.973
    55   1 H    0.985 --    29 C    0.974
    56   1 H    0.973 --    30 C    0.949
    57   1 H    0.982 --    32 C    0.967
    58   1 H    0.985 --    33 C    0.973
    59   1 H    0.985 --    34 C    0.974
    60   1 H    0.981 --    35 C    0.931
 ---------------------------------------------------------------------------

           -------------------------------------------------
          | TOTAL ENERGY              -96.388217591043 Eh   |
          | GRADIENT NORM               0.003936307478 Eh/α |
          | HOMO-LUMO GAP               3.017018013147 eV   |
           -------------------------------------------------

 * finished run on 2024/03/26 at 15:20:01.831
