 Gaussian 16, Revision C.01,
 Gaussian 16:  ES64L-G16RevC.01  3-Jul-2019

 ---------------------------------
 # opt freq b3lyp/6-31g** em=gd3bj
 ---------------------------------

 ----------
 0-0-olefin
 ----------
 Symbolic Z-matrix:
 Charge =  0 Multiplicity = 1

 SCF Done:  E(RB3LYP) =  -235.887286314     A.U. after   13 cycles
 SCF Done:  E(RB3LYP) =  -235.888467826     A.U. after   10 cycles
 SCF Done:  E(RB3LYP) =  -235.888539302     A.U. after    9 cycles
 SCF Done:  E(RB3LYP) =  -235.888546315     A.U. after    9 cycles
 SCF Done:  E(RB3LYP) =  -235.888547649     A.U. after    8 cycles
 SCF Done:  E(RB3LYP) =  -235.888548339     A.U. after    8 cycles
 SCF Done:  E(RB3LYP) =  -235.888548574     A.U. after    7 cycles
 Optimization completed.
    -- Stationary point found.
 Normal termination of Gaussian 16 at Tue Mar 26 13:23:29 2024.

 ----------------------------------------------------------------------
 #N Geom=AllCheck Guess=TCheck SCRF=Check GenChk RB3LYP/6-31G(d,p) Freq
 ----------------------------------------------------------------------

 Structure from the checkpoint file:  "0-0-olefin.chk"
 ----------
 0-0-olefin
 ----------
 Charge =  0 Multiplicity = 1

                         Standard orientation:
 ---------------------------------------------------------------------
 Center     Atomic      Atomic             Coordinates (Angstroms)
 Number     Number       Type             X           Y           Z
 ---------------------------------------------------------------------
      1          6           0        2.485951   -0.929912   -0.107482
      2          6           0        1.755891    0.033225    0.453811
      3          6           0        0.883221    1.007406   -0.286202
      4          6           0       -0.602063    0.904230    0.108762
      5          6           0       -1.242976   -0.433535   -0.269942
      6          6           0       -2.714736   -0.524107    0.136638
      7          1           0        2.503713   -1.072113   -1.185385
      8          1           0        3.094488   -1.607114    0.484126
      9          1           0        1.762162    0.137202    1.540191
     10          1           0        1.230405    2.029639   -0.081110
     11          1           0        0.989246    0.849118   -1.366762
     12          1           0       -1.155897    1.722745   -0.368984
     13          1           0       -0.699888    1.061021    1.192212
     14          1           0       -1.148927   -0.580191   -1.354560
     15          1           0       -0.676449   -1.249416    0.194098
     16          1           0       -2.831550   -0.413318    1.220654
     17          1           0       -3.307368    0.265064   -0.339898
     18          1           0       -3.151658   -1.486482   -0.148095
 ---------------------------------------------------------------------

 SCF Done:  E(RB3LYP) =  -235.888548574     A.U. after    1 cycles

 The electronic state is 1-A.
 Alpha  occ. eigenvalues --  -10.18455 -10.18240 -10.17852 -10.17407 -10.17373
 Alpha  occ. eigenvalues --  -10.16989  -0.80557  -0.76174  -0.70688  -0.63192
 Alpha  occ. eigenvalues --   -0.57697  -0.54735  -0.46024  -0.45814  -0.42281
 Alpha  occ. eigenvalues --   -0.41723  -0.40992  -0.37152  -0.35770  -0.33615
 Alpha  occ. eigenvalues --   -0.33141  -0.32097  -0.31722  -0.24970
 Alpha virt. eigenvalues --    0.02426   0.10238   0.11671   0.11886   0.14092
 Alpha virt. eigenvalues --    0.15559   0.16166   0.17219   0.18275   0.19058
 Alpha virt. eigenvalues --    0.19233   0.19819   0.20371   0.24586   0.25356

 Mulliken charges:
               1
     1  C   -0.243478
     2  C   -0.014536
     3  C   -0.214351
     4  C   -0.170857
     5  C   -0.166937
     6  C   -0.317221
     7  H    0.090907
     8  H    0.094216
     9  H    0.079882
    10  H    0.099964
    11  H    0.093360
    12  H    0.088900
    13  H    0.088398
    14  H    0.088717
    15  H    0.102663
    16  H    0.100779
    17  H    0.100133
    18  H    0.099458
 Sum of Mulliken charges =  -0.00000

 Dipole moment (field-independent basis, Debye):
    X=             -0.1590    Y=              0.2122    Z=              0.0442  Tot=              0.2688
 Quadrupole moment (field-independent basis, Debye-Ang):
   XX=            -41.4019   YY=            -39.5846   ZZ=            -38.5000
   XY=             -0.7875   XZ=              0.3611   YZ=              0.0986

  Exact polarizability:      71.232      -9.685      63.260      -1.611       2.725      58.541
 Approx polarizability:      84.818     -17.123      91.266      -4.087       7.346      86.804

                      1                      2                      3
                      A                      A                      A
 Frequencies --     75.9552                87.9532               130.8423
 Red. masses --      2.1282                 2.1298                 1.9813
 Frc consts  --      0.0072                 0.0097                 0.0200
 IR Inten    --      0.0759                 0.0505                 0.0432

                      4                      5                      6
                      A                      A                      A
 Frequencies --    246.7728               252.7786               307.6747
 Red. masses --      1.4308                 1.5873                 2.0633
 Frc consts  --      0.0513                 0.0598                 0.1151
 IR Inten    --      0.0103                 0.0629                 0.3935

                      7                      8                      9
                      A                      A                      A
 Frequencies --    406.7415               463.5745               658.1682
 Red. masses --      2.0490                 2.1681                 1.4270
 Frc consts  --      0.1997                 0.2745                 0.3642
 IR Inten    --      0.8969                 0.8502                 6.6536

                     10                     11                     12
                      A                      A                      A
 Frequencies --    751.5604               834.7633               850.4684
 Red. masses --      1.1414                 2.0941                 1.4927
 Frc consts  --      0.3798                 0.8598                 0.6361
 IR Inten    --      3.1936                 1.9466                 0.3517

                     13                     14                     15
                      A                      A                      A
 Frequencies --    930.2480               937.7103               946.8695
 Red. masses --      1.3385                 1.3381                 1.5673
 Frc consts  --      0.6825                 0.6932                 0.8279
 IR Inten    --      0.5718                29.5421                10.6578

                     16                     17                     18
                      A                      A                      A
 Frequencies --   1021.0448              1033.8124              1044.6358
 Red. masses --      2.5123                 1.1327                 1.2618
 Frc consts  --      1.5432                 0.7133                 0.8113
 IR Inten    --      0.2039                 3.5741                 8.7675

                     19                     20                     21
                      A                      A                      A
 Frequencies --   1072.9283              1125.7235              1198.2588
 Red. masses --      2.1969                 1.9195                 1.9956
 Frc consts  --      1.4901                 1.4332                 1.6882
 IR Inten    --      0.6298                 2.6776                 0.3398

                     22                     23                     24
                      A                      A                      A
 Frequencies --   1251.4693              1268.6245              1324.2851
 Red. masses --      1.3475                 1.3401                 1.2226
 Frc consts  --      1.2434                 1.2707                 1.2633
 IR Inten    --      1.5896                 0.7298                 0.9534

                     25                     26                     27
                      A                      A                      A
 Frequencies --   1336.3822              1341.4734              1363.5399
 Red. masses --      1.1703                 1.2690                 1.3117
 Frc consts  --      1.2314                 1.3455                 1.4369
 IR Inten    --      2.1724                 1.2473                 2.2320

                     28                     29                     30
                      A                      A                      A
 Frequencies --   1411.7726              1427.6745              1464.5716
 Red. masses --      1.5377                 1.2516                 1.1790
 Frc consts  --      1.8058                 1.5031                 1.4900
 IR Inten    --      1.4455                 0.7046                 1.0033

                     31                     32                     33
                      A                      A                      A
 Frequencies --   1494.9703              1502.5379              1510.0068
 Red. masses --      1.1007                 1.0843                 1.0682
 Frc consts  --      1.4493                 1.4422                 1.4351
 IR Inten    --      6.9391                 0.8639                 0.6668

                     34                     35                     36
                      A                      A                      A
 Frequencies --   1514.5214              1525.3469              1730.9540
 Red. masses --      1.0407                 1.0835                 4.6119
 Frc consts  --      1.4065                 1.4854                 8.1414
 IR Inten    --      5.2337                 2.5023                 7.5178

                     37                     38                     39
                      A                      A                      A
 Frequencies --   3015.6071              3021.8539              3030.0689
 Red. masses --      1.0614                 1.0628                 1.0641
 Frc consts  --      5.6871                 5.7180                 5.7564
 IR Inten    --     14.9248                27.4601                31.7593

                     40                     41                     42
                      A                      A                      A
 Frequencies --   3037.0076              3053.6514              3066.8054
 Red. masses --      1.0372                 1.0975                 1.0986
 Frc consts  --      5.6364                 6.0294                 6.0878
 IR Inten    --     44.3405                13.3493                24.6477

                     43                     44                     45
                      A                      A                      A
 Frequencies --   3077.2347              3105.7923              3111.5140
 Red. masses --      1.1017                 1.1028                 1.1017
 Frc consts  --      6.1465                 6.2673                 6.2842
 IR Inten    --     27.9544                66.3802                39.3055

                     46                     47                     48
                      A                      A                      A
 Frequencies --   3130.3400              3149.7855              3233.6368
 Red. masses --      1.0828                 1.0671                 1.1157
 Frc consts  --      6.2513                 6.2378                 6.8738
 IR Inten    --     29.4650                 5.3750                20.5007

 - Thermochemistry -
 -------------------
 Temperature   298.150 Kelvin.  Pressure   1.00000 Atm.
 Atom     1 has atomic number  6 and mass  12.00000

 Molecular mass:    84.09390 amu.
 Principal axes and moments of inertia in atomic units:
                           1         2         3
     Eigenvalues --   253.384891078.210191218.33934
           X            0.99999  -0.00130  -0.00385
           Y            0.00132   0.99999   0.00453
           Z            0.00384  -0.00454   0.99998
 This molecule is an asymmetric top.
 Rotational symmetry number  1.
 Rotational temperatures (Kelvin)      0.34183     0.08033     0.07109
 Rotational constants (GHZ):           7.12253     1.67383     1.48131
 Zero-point vibrational energy     435918.7 (Joules/Mol)
                                  104.18707 (Kcal/Mol)
 Warning -- explicit consideration of   8 degrees of freedom as
           vibrations may cause significant error
 Vibrational temperatures:    109.28   126.55   188.25   355.05   363.69
          (Kelvin)            442.68   585.21   666.98   946.96  1081.33
                             1201.04  1223.63  1338.42  1349.16  1362.33
                             1469.06  1487.43  1503.00  1543.70  1619.67
                             1724.03  1800.59  1825.27  1905.35  1922.76
                             1930.08  1961.83  2031.23  2054.11  2107.19
                             2150.93  2161.82  2172.56  2179.06  2194.63
                             2490.46  4338.79  4347.77  4359.59  4369.58
                             4393.52  4412.45  4427.45  4468.54  4476.77
                             4503.86  4531.84  4652.48

 Zero-point correction=                           0.166033 (Hartree/Particle)
 Thermal correction to Energy=                    0.173794
 Thermal correction to Enthalpy=                  0.174738
 Thermal correction to Gibbs Free Energy=         0.134035
 Sum of electronic and zero-point Energies=           -235.722516
 Sum of electronic and thermal Energies=              -235.714755
 Sum of electronic and thermal Enthalpies=            -235.713811
 Sum of electronic and thermal Free Energies=         -235.754513

                     E (Thermal)             CV                S
                      KCal/Mol        Cal/Mol-Kelvin    Cal/Mol-Kelvin
 Total                  109.057             27.270             85.665
 Electronic               0.000              0.000              0.000
 Translational            0.889              2.981             39.202
 Rotational               0.889              2.981             27.301
 Vibrational            107.280             21.308             19.163
 Vibration     1          0.599              1.965              3.993
 Vibration     2          0.601              1.958              3.705
 Vibration     3          0.612              1.922              2.934
 Vibration     4          0.661              1.768              1.754
 Vibration     5          0.664              1.758              1.711
 Vibration     6          0.698              1.659              1.375
 Vibration     7          0.772              1.456              0.938
 Vibration     8          0.821              1.331              0.756

 Optimization completed.
    -- Stationary point found.
 Normal termination of Gaussian 16 at Tue Mar 26 13:23:48 2024.
